# LAMMPS data file written by WriteLammpsdata function in RASPA(written by Zhao Li)
1007  atoms
0  bonds
0  angles
0  dihedrals
0  impropers
0.0      36.174000000000 xlo xhi
0.0      31.409760388580 ylo yhi
0.0      39.621370056408 zlo zhi
  -18.246440127652    -0.161748620188    -0.088923995918 xy xz yz

5 atom types
0 bond types
0 angle types
0 dihedral types
0 improper types

Masses

1     83.800000000000  # Kr_
2     15.999404927130  # O
3     12.010735896764  # C
4     51.996133070619  # Cr
5      1.007940753896  # H

Pair Coeffs

1      0.330670586763      3.636000000000 # Kr_
2      0.059993659942      3.120000000000 # O
3      0.104983936891      3.430000000000 # C
4      0.015003382993      2.690000000000 # Cr
5      0.043996675426      2.570000000000 # H

Atoms

1  1  2                 0.0		           1.44637             8.44461             6.04325		# O
2  1  2                 0.0		          -1.12396             8.49970             6.47829		# O
3  1  3                 0.0		          -2.20131             9.12028             6.72494		# C
4  1  2                 0.0		          -2.58946            10.11924             6.03869		# O
5  1  2                 0.0		          -1.26121            12.31896             6.48424		# O
6  1  3                 0.0		          -0.18569            12.94078             6.73722		# C
7  1  2                 0.0		           0.87782            12.77614             6.05811		# O
8  1  2                 0.0		           2.11442            10.52168             6.49275		# O
9  1  3                 0.0		           2.11577             9.27731             6.73385		# C
10  1  2                 0.0		           0.96501             8.51481             3.38624		# O
11  1  2                 0.0		          -1.60702             8.44269             3.82108		# O
12  1  3                 0.0		          -2.28438             9.27048             3.12831		# C
13  1  2                 0.0		          -2.28360            10.51437             3.38208		# O
14  1  2                 0.0		          -1.06445            12.77486             3.82901		# O
15  1  3                 0.0		          -0.00249            12.95008             3.15069		# C
16  1  2                 0.0		           1.07724            12.33452             3.40050		# O
17  1  2                 0.0		           2.42014            10.14146             3.83555		# O
18  1  3                 0.0		           2.04053             9.14150             3.14613		# C
19  1  4                 0.0		          -0.08021             8.54652             4.93227		# Cr
20  1  4                 0.0		          -1.73816            11.39617             4.93365		# Cr
21  1  4                 0.0		           1.56116            11.40776             4.94653		# Cr
22  1  2                 0.0		          -0.08547            10.45072             4.93841		# O
23  1  2                 0.0		           6.73811             5.14673            13.32744		# O
24  1  2                 0.0		           7.98011             2.89077            13.72583		# O
25  1  3                 0.0		           9.05561             2.71115            13.07604		# C
26  1  2                 0.0		          10.13990             3.30846            13.33576		# O
27  1  2                 0.0		          11.46884             5.51267            13.74049		# O
28  1  3                 0.0		          11.08859             6.53229            13.08634		# C
29  1  2                 0.0		          10.02900             7.17420            13.34190		# O
30  1  2                 0.0		           7.45364             7.22405            13.73316		# O
31  1  3                 0.0		           6.76360             6.38610            13.07505		# C
32  1  2                 0.0		           6.45748             5.49615            15.99138		# O
33  1  2                 0.0		           7.79821             3.29720            16.39017		# O
34  1  3                 0.0		           8.88601             2.70471            16.64811		# C
35  1  2                 0.0		           9.96082             2.89274            15.99931		# O
36  1  2                 0.0		          11.19198             5.15317            16.40444		# O
37  1  3                 0.0		          11.15923             6.39124            16.66237		# C
38  1  2                 0.0		          10.46411             7.22805            16.00822		# O
39  1  2                 0.0		           7.88825             7.16326            16.39869		# O
40  1  3                 0.0		           6.82980             6.51675            16.64811		# C
41  1  4                 0.0		           7.30824             4.24545            14.85920		# Cr
42  1  4                 0.0		          10.62531             4.25422            14.86990		# Cr
43  1  4                 0.0		           8.95913             7.12240            14.87049		# Cr
44  1  2                 0.0		           8.96434             5.20735            14.86693		# O
45  1  3                 0.0		           9.00021             0.03976             9.99508		# C
46  1  3                 0.0		          -1.29805            15.04676             9.69357		# C
47  1  3                 0.0		          -1.32182            14.13575             8.63270		# C
48  1  3                 0.0		          -0.16781            13.91149             7.85771		# C
49  1  3                 0.0		           1.00867            14.61955             8.17072		# C
50  1  3                 0.0		           1.02901            15.52931             9.23158		# C
51  1  3                 0.0		           9.02354             0.97898            11.08487		# C
52  1  3                 0.0		           9.04158             1.76830            11.99577		# C
53  1  5                 0.0		          -2.19593            15.20642            10.27858		# H
54  1  5                 0.0		          -2.24315            13.60744             8.42152		# H
55  1  5                 0.0		           1.91522            14.47070             7.59760		# H
56  1  5                 0.0		          11.06714             0.35962             9.45643		# H
57  1  3                 0.0		          13.42796             7.79797             9.99469		# C
58  1  3                 0.0		          -3.46791             7.12647             9.69693		# C
59  1  3                 0.0		          -2.66879             7.55195             8.63112		# C
60  1  3                 0.0		          -3.05246             8.65682             7.84701		# C
61  1  3                 0.0		          -4.25357             9.32422             8.15566		# C
62  1  3                 0.0		          -5.05005             8.89638             9.22168		# C
63  1  3                 0.0		          12.60483             7.35813            11.09002		# C
64  1  3                 0.0		          11.91305             6.98560            12.00428		# C
65  1  5                 0.0		          -3.15636             6.27425            10.28908		# H
66  1  5                 0.0		          -1.75057             7.01688             8.42350		# H
67  1  5                 0.0		          -4.57848            10.17908             7.57600		# H
68  1  5                 0.0		          12.11626             9.42309             9.44356		# H
69  1  3                 0.0		           4.49492             7.79248             9.99172		# C
70  1  3                 0.0		           4.47975             9.16165             9.70228		# C
71  1  3                 0.0		           3.70886             9.64696             8.64122		# C
72  1  3                 0.0		           2.94234             8.76658             7.85375		# C
73  1  3                 0.0		           2.96591             7.39095             8.15487		# C
74  1  3                 0.0		           3.73714             6.90909             9.21613		# C
75  1  3                 0.0		           5.28990             7.29344            11.08249		# C
76  1  3                 0.0		           5.95940             6.87632            11.99398		# C
77  1  5                 0.0		           5.06334             9.85432            10.29700		# H
78  1  5                 0.0		           3.71279            10.71095             8.43935		# H
79  1  5                 0.0		           2.38694             6.68522             7.57224		# H
80  1  5                 0.0		           3.74210             5.84712             9.43167		# H
81  1  3                 0.0		           8.95770             0.02029            19.71757		# C
82  1  3                 0.0		          -1.23620            15.54021             0.66703		# C
83  1  3                 0.0		          -1.20938            14.62523             1.72333		# C
84  1  3                 0.0		          -0.02702            13.92613             2.03495		# C
85  1  3                 0.0		           1.12598            14.16470             1.26293		# C
86  1  3                 0.0		           1.09581            15.08078             0.20682		# C
87  1  3                 0.0		           8.92796             0.96455            18.63215		# C
88  1  3                 0.0		           8.90504             1.75780            17.72482		# C
89  1  5                 0.0		           6.96770             0.36352             0.44317		# H
90  1  5                 0.0		          -2.11562            14.46533             2.29408		# H
91  1  5                 0.0		           2.05165            13.64345             1.47312		# H
92  1  5                 0.0		           1.91240            15.20676            19.43468		# H
93  1  3                 0.0		          13.41878             7.79114            19.75601		# C
94  1  3                 0.0		          -3.83288             6.95062             0.71992		# C
95  1  3                 0.0		          -3.06454             7.42676             1.78574		# C
96  1  3                 0.0		          -3.03548             8.80635             2.10013		# C
97  1  3                 0.0		          -3.80702             9.68573             1.30434		# C
98  1  3                 0.0		          -4.57324             9.20189             0.23971		# C
99  1  3                 0.0		          12.62706             7.29544            18.66107		# C
100  1  3                 0.0		          11.96034             6.88053            17.74661		# C
101  1  5                 0.0		          14.24928             5.88962             0.50002		# H
102  1  5                 0.0		          -2.49295             6.70619             2.35886		# H
103  1  5                 0.0		          -3.82262            10.75197             1.49729		# H
104  1  5                 0.0		          -5.23652             9.85135            19.45568		# H
105  1  3                 0.0		           4.45528             7.77930            19.71401		# C
106  1  3                 0.0		           3.34421             7.14859             0.18939		# C
107  1  3                 0.0		           2.53132             7.57387             1.24490		# C
108  1  3                 0.0		           2.90195             8.68244             2.03000		# C
109  1  3                 0.0		           4.10327             9.35434             1.73205		# C
110  1  3                 0.0		           4.91336             8.92671             0.67653		# C
111  1  3                 0.0		           5.29295             7.33932            18.62997		# C
112  1  3                 0.0		           5.99553             6.96774            17.72363		# C
113  1  5                 0.0		           2.96209             6.24860            19.40734		# H
114  1  5                 0.0		           1.61352             7.03506             1.44460		# H
115  1  5                 0.0		           4.41857            10.21193             2.31329		# H
116  1  5                 0.0		           5.83425             9.45660             0.46337		# H
117  1  2                 0.0		           1.36549             8.40015            25.85393		# O
118  1  2                 0.0		          -1.20483             8.45524            26.28898		# O
119  1  3                 0.0		          -2.28218             9.07582            26.53562		# C
120  1  2                 0.0		          -2.67033            10.07477            25.84938		# O
121  1  2                 0.0		          -1.34208            12.27450            26.29492		# O
122  1  3                 0.0		          -0.26657            12.89632            26.54790		# C
123  1  2                 0.0		           0.79695            12.73168            25.86879		# O
124  1  2                 0.0		           2.03354            10.47721            26.30344		# O
125  1  3                 0.0		           2.03489             9.23285            26.54453		# C
126  1  2                 0.0		           0.88414             8.47035            23.19693		# O
127  1  2                 0.0		          -1.68789             8.39823            23.63177		# O
128  1  3                 0.0		          -2.36526             9.22602            22.93899		# C
129  1  2                 0.0		          -2.36447            10.46990            23.19277		# O
130  1  2                 0.0		          -1.14533            12.73040            23.63969		# O
131  1  3                 0.0		          -0.08336            12.90562            22.96138		# C
132  1  2                 0.0		           0.99636            12.29006            23.21119		# O
133  1  2                 0.0		           2.33927            10.09699            23.64623		# O
134  1  3                 0.0		           1.95965             9.09704            22.95682		# C
135  1  4                 0.0		          -0.16109             8.50206            24.74295		# Cr
136  1  4                 0.0		          -1.81904            11.35170            24.74434		# Cr
137  1  4                 0.0		           1.48028            11.36330            24.75721		# Cr
138  1  2                 0.0		          -0.16635            10.40626            24.74909		# O
139  1  2                 0.0		           6.65724             5.10227            33.13813		# O
140  1  2                 0.0		           7.89924             2.84631            33.53652		# O
141  1  3                 0.0		           8.97474             2.66669            32.88673		# C
142  1  2                 0.0		          10.05903             3.26399            33.14645		# O
143  1  2                 0.0		          11.38796             5.46821            33.55118		# O
144  1  3                 0.0		          11.00772             6.48782            32.89703		# C
145  1  2                 0.0		           9.94813             7.12974            33.15259		# O
146  1  2                 0.0		           7.37276             7.17959            33.54385		# O
147  1  3                 0.0		           6.68273             6.34164            32.88574		# C
148  1  2                 0.0		           6.37660             5.45169            35.80207		# O
149  1  2                 0.0		           7.71733             3.25274            36.20086		# O
150  1  3                 0.0		           8.80514             2.66025            36.45879		# C
151  1  2                 0.0		           9.87994             2.84828            35.80999		# O
152  1  2                 0.0		          11.11111             5.10871            36.21512		# O
153  1  3                 0.0		          11.07835             6.34678            36.47306		# C
154  1  2                 0.0		          10.38324             7.18359            35.81891		# O
155  1  2                 0.0		           7.80737             7.11879            36.20938		# O
156  1  3                 0.0		           6.74892             6.47229            36.45879		# C
157  1  4                 0.0		           7.22736             4.20098            34.66989		# Cr
158  1  4                 0.0		          10.54443             4.20975            34.68059		# Cr
159  1  4                 0.0		           8.87826             7.07794            34.68118		# Cr
160  1  2                 0.0		           8.88347             5.16289            34.67761		# O
161  1  3                 0.0		           8.91934            -0.00470            29.80577		# C
162  1  3                 0.0		          -1.37892            15.00230            29.50425		# C
163  1  3                 0.0		          -1.40269            14.09129            28.44339		# C
164  1  3                 0.0		          -0.24868            13.86703            27.66840		# C
165  1  3                 0.0		           0.92780            14.57509            27.98140		# C
166  1  3                 0.0		           0.94814            15.48485            29.04227		# C
167  1  3                 0.0		           8.94266             0.93452            30.89556		# C
168  1  3                 0.0		           8.96070             1.72384            31.80645		# C
169  1  5                 0.0		          -2.27680            15.16196            30.08926		# H
170  1  5                 0.0		          -2.32402            13.56298            28.23221		# H
171  1  5                 0.0		           1.83434            14.42624            27.40828		# H
172  1  5                 0.0		          10.98627             0.31516            29.26712		# H
173  1  3                 0.0		          13.34708             7.75351            29.80537		# C
174  1  3                 0.0		          -3.54878             7.08201            29.50762		# C
175  1  3                 0.0		          -2.74967             7.50749            28.44180		# C
176  1  3                 0.0		          -3.13334             8.61236            27.65770		# C
177  1  3                 0.0		          -4.33444             9.27975            27.96635		# C
178  1  3                 0.0		          -5.13093             8.85192            29.03236		# C
179  1  3                 0.0		          12.52395             7.31367            30.90071		# C
180  1  3                 0.0		          11.83217             6.94114            31.81497		# C
181  1  5                 0.0		          -3.23723             6.22979            30.09976		# H
182  1  5                 0.0		          -1.83144             6.97242            28.23419		# H
183  1  5                 0.0		          -4.65935            10.13461            27.38669		# H
184  1  5                 0.0		          12.03539             9.37863            29.25424		# H
185  1  3                 0.0		           4.41404             7.74802            29.80240		# C
186  1  3                 0.0		           4.39887             9.11719            29.51297		# C
187  1  3                 0.0		           3.62799             9.60250            28.45191		# C
188  1  3                 0.0		           2.86147             8.72212            27.66443		# C
189  1  3                 0.0		           2.88503             7.34648            27.96556		# C
190  1  3                 0.0		           3.65626             6.86463            29.02681		# C
191  1  3                 0.0		           5.20903             7.24898            30.89318		# C
192  1  3                 0.0		           5.87853             6.83186            31.80467		# C
193  1  5                 0.0		           4.98247             9.80986            30.10768		# H
194  1  5                 0.0		           3.63191            10.66649            28.25004		# H
195  1  5                 0.0		           2.30607             6.64076            27.38292		# H
196  1  5                 0.0		           3.66122             5.80266            29.24235		# H
197  1  3                 0.0		           8.87683            -0.02417            39.52826		# C
198  1  3                 0.0		          -1.31707            15.49575            20.47771		# C
199  1  3                 0.0		          -1.29025            14.58077            21.53402		# C
200  1  3                 0.0		          -0.10790            13.88167            21.84564		# C
201  1  3                 0.0		           1.04511            14.12023            21.07362		# C
202  1  3                 0.0		           1.01494            15.03631            20.01751		# C
203  1  3                 0.0		           8.84709             0.92009            38.44283		# C
204  1  3                 0.0		           8.82417             1.71334            37.53550		# C
205  1  5                 0.0		           6.88683             0.31905            20.25385		# H
206  1  5                 0.0		          -2.19649            14.42087            22.10476		# H
207  1  5                 0.0		           1.97078            13.59899            21.28381		# H
208  1  5                 0.0		           1.83153            15.16230            39.24536		# H
209  1  3                 0.0		          13.33791             7.74668            39.56669		# C
210  1  3                 0.0		          -3.91376             6.90616            20.53061		# C
211  1  3                 0.0		          -3.14542             7.38229            21.59642		# C
212  1  3                 0.0		          -3.11636             8.76189            21.91082		# C
213  1  3                 0.0		          -3.88789             9.64127            21.11502		# C
214  1  3                 0.0		          -4.65411             9.15743            20.05039		# C
215  1  3                 0.0		          12.54618             7.25098            38.47176		# C
216  1  3                 0.0		          11.87947             6.83606            37.55729		# C
217  1  5                 0.0		          14.16841             5.84516            20.31071		# H
218  1  5                 0.0		          -2.57382             6.66172            22.16954		# H
219  1  5                 0.0		          -3.90350            10.70751            21.30798		# H
220  1  5                 0.0		          -5.31739             9.80689            39.26636		# H
221  1  3                 0.0		           4.37440             7.73484            39.52469		# C
222  1  3                 0.0		           3.26334             7.10413            20.00008		# C
223  1  3                 0.0		           2.45045             7.52941            21.05559		# C
224  1  3                 0.0		           2.82107             8.63798            21.84069		# C
225  1  3                 0.0		           4.02239             9.30987            21.54273		# C
226  1  3                 0.0		           4.83249             8.88224            20.48722		# C
227  1  3                 0.0		           5.21208             7.29486            38.44065		# C
228  1  3                 0.0		           5.91466             6.92328            37.53431		# C
229  1  5                 0.0		           2.88121             6.20414            39.21802		# H
230  1  5                 0.0		           1.53264             6.99059            21.25528		# H
231  1  5                 0.0		           4.33770            10.16747            22.12398		# H
232  1  5                 0.0		           5.75338             9.41213            20.27406		# H
233  1  2                 0.0		          -7.67685            24.14949             6.04325		# O
234  1  2                 0.0		         -10.24718            24.20458             6.47829		# O
235  1  3                 0.0		         -11.32453            24.82516             6.72494		# C
236  1  2                 0.0		         -11.71268            25.82412             6.03869		# O
237  1  2                 0.0		         -10.38443            28.02384             6.48424		# O
238  1  3                 0.0		          -9.30891            28.64566             6.73722		# C
239  1  2                 0.0		          -8.24540            28.48102             6.05811		# O
240  1  2                 0.0		          -7.00880            26.22656             6.49275		# O
241  1  3                 0.0		          -7.00745            24.98219             6.73385		# C
242  1  2                 0.0		          -8.15821            24.21969             3.38624		# O
243  1  2                 0.0		         -10.73024            24.14757             3.82108		# O
244  1  3                 0.0		         -11.40760            24.97536             3.12831		# C
245  1  2                 0.0		         -11.40682            26.21925             3.38208		# O
246  1  2                 0.0		         -10.18767            28.47974             3.82901		# O
247  1  3                 0.0		          -9.12571            28.65496             3.15069		# C
248  1  2                 0.0		          -8.04598            28.03940             3.40050		# O
249  1  2                 0.0		          -6.70308            25.84634             3.83555		# O
250  1  3                 0.0		          -7.08269            24.84638             3.14613		# C
251  1  4                 0.0		          -9.20343            24.25140             4.93227		# Cr
252  1  4                 0.0		         -10.86138            27.10105             4.93365		# Cr
253  1  4                 0.0		          -7.56206            27.11264             4.94653		# Cr
254  1  2                 0.0		          -9.20869            26.15560             4.93841		# O
255  1  2                 0.0		          -2.38511            20.85161            13.32744		# O
256  1  2                 0.0		          -1.14311            18.59565            13.72583		# O
257  1  3                 0.0		          -0.06761            18.41603            13.07604		# C
258  1  2                 0.0		           1.01668            19.01334            13.33576		# O
259  1  2                 0.0		           2.34562            21.21755            13.74049		# O
260  1  3                 0.0		           1.96537            22.23717            13.08634		# C
261  1  2                 0.0		           0.90578            22.87908            13.34190		# O
262  1  2                 0.0		          -1.66958            22.92893            13.73316		# O
263  1  3                 0.0		          -2.35962            22.09098            13.07505		# C
264  1  2                 0.0		          -2.66574            21.20103            15.99138		# O
265  1  2                 0.0		          -1.32501            19.00208            16.39017		# O
266  1  3                 0.0		          -0.23721            18.40959            16.64811		# C
267  1  2                 0.0		           0.83760            18.59762            15.99931		# O
268  1  2                 0.0		           2.06876            20.85805            16.40444		# O
269  1  3                 0.0		           2.03601            22.09612            16.66237		# C
270  1  2                 0.0		           1.34089            22.93293            16.00822		# O
271  1  2                 0.0		          -1.23497            22.86814            16.39869		# O
272  1  3                 0.0		          -2.29342            22.22163            16.64811		# C
273  1  4                 0.0		          -1.81498            19.95033            14.85920		# Cr
274  1  4                 0.0		           1.50209            19.95910            14.86990		# Cr
275  1  4                 0.0		          -0.16409            22.82728            14.87049		# Cr
276  1  2                 0.0		          -0.15888            20.91223            14.86693		# O
277  1  3                 0.0		          -0.12301            15.74464             9.99508		# C
278  1  3                 0.0		         -10.42127            30.75164             9.69357		# C
279  1  3                 0.0		         -10.44504            29.84063             8.63270		# C
280  1  3                 0.0		          -9.29103            29.61637             7.85771		# C
281  1  3                 0.0		          -8.11455            30.32443             8.17072		# C
282  1  3                 0.0		          -8.09421            31.23419             9.23158		# C
283  1  3                 0.0		          -0.09968            16.68386            11.08487		# C
284  1  3                 0.0		          -0.08164            17.47318            11.99577		# C
285  1  5                 0.0		         -11.31915            30.91131            10.27858		# H
286  1  5                 0.0		         -11.36637            29.31232             8.42152		# H
287  1  5                 0.0		          -7.20800            30.17558             7.59760		# H
288  1  5                 0.0		           1.94392            16.06450             9.45643		# H
289  1  3                 0.0		           4.30474            23.50285             9.99469		# C
290  1  3                 0.0		         -12.59113            22.83135             9.69693		# C
291  1  3                 0.0		         -11.79201            23.25683             8.63112		# C
292  1  3                 0.0		         -12.17568            24.36170             7.84701		# C
293  1  3                 0.0		         -13.37679            25.02910             8.15566		# C
294  1  3                 0.0		         -14.17327            24.60126             9.22168		# C
295  1  3                 0.0		           3.48161            23.06301            11.09002		# C
296  1  3                 0.0		           2.78983            22.69048            12.00428		# C
297  1  5                 0.0		         -12.27958            21.97913            10.28908		# H
298  1  5                 0.0		         -10.87379            22.72176             8.42350		# H
299  1  5                 0.0		         -13.70170            25.88396             7.57600		# H
300  1  5                 0.0		           2.99304            25.12797             9.44356		# H
301  1  3                 0.0		          -4.62830            23.49736             9.99172		# C
302  1  3                 0.0		          -4.64347            24.86653             9.70228		# C
303  1  3                 0.0		          -5.41436            25.35184             8.64122		# C
304  1  3                 0.0		          -6.18088            24.47146             7.85375		# C
305  1  3                 0.0		          -6.15731            23.09583             8.15487		# C
306  1  3                 0.0		          -5.38608            22.61397             9.21613		# C
307  1  3                 0.0		          -3.83332            22.99832            11.08249		# C
308  1  3                 0.0		          -3.16382            22.58120            11.99398		# C